 Entering Gaussian System, Link 0=g16
 Initial command:
 /home/lnife/Softwares/Gaussian/g16/l1.exe "/home/lnife/Softwares/Gaussian/Scratch/Gau-11868.inp" -scrdir="/home/lnife/Softwares/Gaussian/Scratch/"
 Entering Link 1 = /home/lnife/Softwares/Gaussian/g16/l1.exe PID=     11870.
  
 Copyright (c) 1988-2019, Gaussian, Inc.  All Rights Reserved.
  
 This is part of the Gaussian(R) 16 program.  It is based on
 the Gaussian(R) 09 system (copyright 2009, Gaussian, Inc.),
 the Gaussian(R) 03 system (copyright 2003, Gaussian, Inc.),
 the Gaussian(R) 98 system (copyright 1998, Gaussian, Inc.),
 the Gaussian(R) 94 system (copyright 1995, Gaussian, Inc.),
 the Gaussian 92(TM) system (copyright 1992, Gaussian, Inc.),
 the Gaussian 90(TM) system (copyright 1990, Gaussian, Inc.),
 the Gaussian 88(TM) system (copyright 1988, Gaussian, Inc.),
 the Gaussian 86(TM) system (copyright 1986, Carnegie Mellon
 University), and the Gaussian 82(TM) system (copyright 1983,
 Carnegie Mellon University). Gaussian is a federally registered
 trademark of Gaussian, Inc.
  
 This software contains proprietary and confidential information,
 including trade secrets, belonging to Gaussian, Inc.
  
 This software is provided under written license and may be
 used, copied, transmitted, or stored only in accord with that
 written license.
  
 The following legend is applicable only to US Government
 contracts under FAR:
  
                    RESTRICTED RIGHTS LEGEND
  
 Use, reproduction and disclosure by the US Government is
 subject to restrictions as set forth in subparagraphs (a)
 and (c) of the Commercial Computer Software - Restricted
 Rights clause in FAR 52.227-19.
  
 Gaussian, Inc.
 340 Quinnipiac St., Bldg. 40, Wallingford CT 06492
  
  
 ---------------------------------------------------------------
 Warning -- This program may not be used in any manner that
 competes with the business of Gaussian, Inc. or will provide
 assistance to any competitor of Gaussian, Inc.  The licensee
 of this program is prohibited from giving any competitor of
 Gaussian, Inc. access to this program.  By using this program,
 the user acknowledges that Gaussian, Inc. is engaged in the
 business of creating and licensing software in the field of
 computational chemistry and represents and warrants to the
 licensee that it is not a competitor of Gaussian, Inc. and that
 it will not use this program in any manner prohibited above.
 ---------------------------------------------------------------
  

 Cite this work as:
 Gaussian 16, Revision C.01,
 M. J. Frisch, G. W. Trucks, H. B. Schlegel, G. E. Scuseria, 
 M. A. Robb, J. R. Cheeseman, G. Scalmani, V. Barone, 
 G. A. Petersson, H. Nakatsuji, X. Li, M. Caricato, A. V. Marenich, 
 J. Bloino, B. G. Janesko, R. Gomperts, B. Mennucci, H. P. Hratchian, 
 J. V. Ortiz, A. F. Izmaylov, J. L. Sonnenberg, D. Williams-Young, 
 F. Ding, F. Lipparini, F. Egidi, J. Goings, B. Peng, A. Petrone, 
 T. Henderson, D. Ranasinghe, V. G. Zakrzewski, J. Gao, N. Rega, 
 G. Zheng, W. Liang, M. Hada, M. Ehara, K. Toyota, R. Fukuda, 
 J. Hasegawa, M. Ishida, T. Nakajima, Y. Honda, O. Kitao, H. Nakai, 
 T. Vreven, K. Throssell, J. A. Montgomery, Jr., J. E. Peralta, 
 F. Ogliaro, M. J. Bearpark, J. J. Heyd, E. N. Brothers, K. N. Kudin, 
 V. N. Staroverov, T. A. Keith, R. Kobayashi, J. Normand, 
 K. Raghavachari, A. P. Rendell, J. C. Burant, S. S. Iyengar, 
 J. Tomasi, M. Cossi, J. M. Millam, M. Klene, C. Adamo, R. Cammi, 
 J. W. Ochterski, R. L. Martin, K. Morokuma, O. Farkas, 
 J. B. Foresman, and D. J. Fox, Gaussian, Inc., Wallingford CT, 2019.
 
 ******************************************
 Gaussian 16:  ES64L-G16RevC.01  3-Jul-2019
                10-Mar-2025 
 ******************************************
 %nprocshared=6
 Will use up to    6 processors via shared memory.
 %mem=8GB
 %chk=test2.chk
 ----------------------------------------------
 # opt freq hf/6-311++g(2d,p) geom=connectivity
 ----------------------------------------------
 1/18=20,19=15,38=1,57=2/1,3;
 2/9=110,12=2,17=6,18=5,40=1/2;
 3/5=4,6=6,7=1112,11=9,25=1,30=1,71=1/1,2,3;
 4//1;
 5/5=2,38=5/2;
 6/7=2,8=2,9=2,10=2,28=1/1;
 7//1,2,3,16;
 1/18=20,19=15/3(2);
 2/9=110/2;
 99//99;
 2/9=110/2;
 3/5=4,6=6,7=1112,11=9,25=1,30=1,71=1/1,2,3;
 4/5=5,16=3,69=1/1;
 5/5=2,38=5/2;
 7//1,2,3,16;
 1/18=20,19=15/3(-5);
 2/9=110/2;
 6/7=2,8=2,9=2,10=2,19=2,28=1/1;
 99/9=1/99;
 -------------------
 Title Card Required
 -------------------
 Symbolic Z-matrix:
 Charge =  0 Multiplicity = 1
 N
 H                    1    B1
 H                    1    B2       2    A1
 H                    1    B3       3    A2       2    D1       0
       Variables:
  B1                    1.                       
  B2                    1.                       
  B3                    1.                       
  A1                  109.4712                   
  A2                  109.47125                  
  D1                 -119.99999                  
 
     2 tetrahedral angles replaced.

 GradGradGradGradGradGradGradGradGradGradGradGradGradGradGradGradGradGrad
 Berny optimization.
 Initialization pass.
                           ----------------------------
                           !    Initial Parameters    !
                           ! (Angstroms and Degrees)  !
 --------------------------                            --------------------------
 ! Name  Definition              Value          Derivative Info.                !
 --------------------------------------------------------------------------------
 ! R1    R(1,2)                  1.0            estimate D2E/DX2                !
 ! R2    R(1,3)                  1.0            estimate D2E/DX2                !
 ! R3    R(1,4)                  1.0            estimate D2E/DX2                !
 ! A1    A(2,1,3)              109.4712         estimate D2E/DX2                !
 ! A2    A(2,1,4)              109.4712         estimate D2E/DX2                !
 ! A3    A(3,1,4)              109.4712         estimate D2E/DX2                !
 ! D1    D(2,1,4,3)           -120.0            estimate D2E/DX2                !
 --------------------------------------------------------------------------------
 Trust Radius=3.00D-01 FncErr=1.00D-07 GrdErr=1.00D-07 EigMax=2.50D+02 EigMin=1.00D-04
 Number of steps in this run=     20 maximum allowed number of steps=    100.
 GradGradGradGradGradGradGradGradGradGradGradGradGradGradGradGradGradGrad

                          Input orientation:                          
 ---------------------------------------------------------------------
 Center     Atomic      Atomic             Coordinates (Angstroms)
 Number     Number       Type             X           Y           Z
 ---------------------------------------------------------------------
      1          7           0        0.000000    0.000000    0.000000
      2          1           0        0.000000    0.000000    1.000000
      3          1           0        0.942809    0.000000   -0.333333
      4          1           0       -0.471404   -0.816497   -0.333333
 ---------------------------------------------------------------------
                    Distance matrix (angstroms):
                    1          2          3          4
     1  N    0.000000
     2  H    1.000000   0.000000
     3  H    1.000000   1.632993   0.000000
     4  H    1.000000   1.632993   1.632993   0.000000
 Stoichiometry    H3N
 Framework group  C3V[C3(N),3SGV(H)]
 Deg. of freedom     2
 Full point group                 C3V     NOp   6
 Largest Abelian subgroup         CS      NOp   2
 Largest concise Abelian subgroup CS      NOp   2
                         Standard orientation:                         
 ---------------------------------------------------------------------
 Center     Atomic      Atomic             Coordinates (Angstroms)
 Number     Number       Type             X           Y           Z
 ---------------------------------------------------------------------
      1          7           0        0.000000   -0.000000    0.100000
      2          1           0       -0.000000    0.942809   -0.233333
      3          1           0       -0.816497   -0.471405   -0.233333
      4          1           0        0.816497   -0.471405   -0.233333
 ---------------------------------------------------------------------
 Rotational constants (GHZ):         311.9519830         311.9519830         188.0456749
 Standard basis: 6-311++G(2d,p) (5D, 7F)
 There are    34 symmetry adapted cartesian basis functions of A'  symmetry.
 There are    16 symmetry adapted cartesian basis functions of A"  symmetry.
 There are    32 symmetry adapted basis functions of A'  symmetry.
 There are    16 symmetry adapted basis functions of A"  symmetry.
    48 basis functions,    69 primitive gaussians,    50 cartesian basis functions
     5 alpha electrons        5 beta electrons
       nuclear repulsion energy        12.0848821587 Hartrees.
 NAtoms=    4 NActive=    4 NUniq=    2 SFac= 4.00D+00 NAtFMM=   60 NAOKFM=F Big=F
 Integral buffers will be    131072 words long.
 Raffenetti 1 integral format.
 Two-electron integral symmetry is turned on.
 One-electron integrals computed using PRISM.
 NBasis=    48 RedAO= T EigKep=  2.70D-03  NBF=    32    16
 NBsUse=    48 1.00D-06 EigRej= -1.00D+00 NBFU=    32    16
 ExpMin= 3.60D-02 ExpMax= 6.29D+03 ExpMxC= 9.49D+02 IAcc=3 IRadAn=         5 AccDes= 0.00D+00
 Harris functional with IExCor=  205 and IRadAn=       5 diagonalized for initial guess.
 HarFok:  IExCor=  205 AccDes= 0.00D+00 IRadAn=         5 IDoV= 1 UseB2=F ITyADJ=14
 ICtDFT=  3500011 ScaDFX=  1.000000  1.000000  1.000000  1.000000
 FoFCou: FMM=F IPFlag=           0 FMFlag=      100000 FMFlg1=           0
         NFxFlg=           0 DoJE=T BraDBF=F KetDBF=T FulRan=T
         wScrn=  0.000000 ICntrl=       500 IOpCl=  0 I1Cent=   200000004 NGrid=           0
         NMat0=    1 NMatS0=      1 NMatT0=    0 NMatD0=    1 NMtDS0=    0 NMtDT0=    0
 Petite list used in FoFCou.
 Initial guess orbital symmetries:
       Occupied  (A1) (A1) (E) (E) (A1)
       Virtual   (A1) (E) (E) (A1) (E) (E) (A1) (E) (E) (A1) (E)
                 (E) (A1) (A1) (E) (E) (E) (E) (A1) (A1) (E) (E)
                 (A2) (E) (E) (A1) (E) (E) (A1) (E) (E) (E) (E)
                 (A1) (A1) (E) (E) (E) (E) (A1) (E) (E) (A1)
 The electronic state of the initial guess is 1-A1.
 Keep R1 ints in memory in symmetry-blocked form, NReq=1532768.
 Requested convergence on RMS density matrix=1.00D-08 within 128 cycles.
 Requested convergence on MAX density matrix=1.00D-06.
 Requested convergence on             energy=1.00D-06.
 No special actions if energy rises.
 SCF Done:  E(RHF) =  -56.2156611423     A.U. after   11 cycles
            NFock= 11  Conv=0.46D-08     -V/T= 2.0003

 **********************************************************************

            Population analysis using the SCF Density.

 **********************************************************************

 Orbital symmetries:
       Occupied  (A1) (A1) (E) (E) (A1)
       Virtual   (A1) (E) (E) (A1) (E) (E) (A1) (E) (E) (A1) (E)
                 (E) (A1) (A1) (E) (E) (E) (E) (A1) (A1) (E) (E)
                 (A2) (E) (E) (A1) (E) (E) (A1) (E) (E) (E) (E)
                 (A1) (A1) (E) (E) (E) (E) (A1) (E) (E) (A1)
 The electronic state is 1-A1.
 Alpha  occ. eigenvalues --  -15.53527  -1.14475  -0.63905  -0.63905  -0.42139
 Alpha virt. eigenvalues --    0.04419   0.07387   0.07387   0.18213   0.21711
 Alpha virt. eigenvalues --    0.21711   0.24468   0.31257   0.31257   0.31999
 Alpha virt. eigenvalues --    0.65155   0.65155   0.80891   0.99289   1.01384
 Alpha virt. eigenvalues --    1.01384   1.10826   1.10826   1.22788   1.41050
 Alpha virt. eigenvalues --    1.63503   1.63503   1.78602   1.95632   1.95632
 Alpha virt. eigenvalues --    2.28536   2.54790   2.54790   2.75520   2.88301
 Alpha virt. eigenvalues --    2.88301   2.94226   2.94226   3.17999   4.46507
 Alpha virt. eigenvalues --    5.08203   5.08203   5.26523   5.26523   5.32606
 Alpha virt. eigenvalues --    5.74205   5.74205  37.09464
          Condensed to atoms (all electrons):
               1          2          3          4
     1  N    6.507645   0.393758   0.393758   0.393758
     2  H    0.393758   0.446280  -0.034839  -0.034839
     3  H    0.393758  -0.034839   0.446280  -0.034839
     4  H    0.393758  -0.034839  -0.034839   0.446280
 Mulliken charges:
               1
     1  N   -0.688921
     2  H    0.229640
     3  H    0.229640
     4  H    0.229640
 Sum of Mulliken charges =  -0.00000
 Mulliken charges with hydrogens summed into heavy atoms:
               1
     1  N   -0.000000
 Electronic spatial extent (au):  <R**2>=             26.4470
 Charge=             -0.0000 electrons
 Dipole moment (field-independent basis, Debye):
    X=              0.0000    Y=              0.0000    Z=             -1.5639  Tot=              1.5639
 Quadrupole moment (field-independent basis, Debye-Ang):
   XX=             -6.0845   YY=             -6.0845   ZZ=             -9.4739
   XY=             -0.0000   XZ=             -0.0000   YZ=              0.0000
 Traceless Quadrupole moment (field-independent basis, Debye-Ang):
   XX=              1.1298   YY=              1.1298   ZZ=             -2.2596
   XY=             -0.0000   XZ=             -0.0000   YZ=              0.0000
 Octapole moment (field-independent basis, Debye-Ang**2):
  XXX=              0.0000  YYY=              0.9913  ZZZ=             -1.5188  XYY=              0.0000
  XXY=             -0.9913  XXZ=             -0.8893  XZZ=              0.0000  YZZ=              0.0000
  YYZ=             -0.8893  XYZ=              0.0000
 Hexadecapole moment (field-independent basis, Debye-Ang**3):
 XXXX=             -9.6715 YYYY=             -9.6715 ZZZZ=            -12.6760 XXXY=              0.0000
 XXXZ=              0.0000 YYYX=              0.0000 YYYZ=             -0.3400 ZZZX=              0.0000
 ZZZY=             -0.0000 XXYY=             -3.2238 XXZZ=             -3.8626 YYZZ=             -3.8626
 XXYZ=              0.3400 YYXZ=             -0.0000 ZZXY=              0.0000
 N-N= 1.208488215873D+01 E-N=-1.560396865548D+02  KE= 5.619764953237D+01
 Symmetry A'   KE= 5.356287100143D+01
 Symmetry A"   KE= 2.634778530942D+00
 Calling FoFJK, ICntrl=      2127 FMM=F ISym2X=1 I1Cent= 0 IOpClX= 0 NMat=1 NMatS=1 NMatT=0.
 ***** Axes restored to original set *****
 -------------------------------------------------------------------
 Center     Atomic                   Forces (Hartrees/Bohr)
 Number     Number              X              Y              Z
 -------------------------------------------------------------------
      1        7          -0.002114646    0.003662673   -0.001495280
      2        1           0.000972714   -0.001684789   -0.001016658
      3        1          -0.000634277   -0.001684790    0.001255969
      4        1           0.001776209   -0.000293094    0.001255970
 -------------------------------------------------------------------
 Cartesian Forces:  Max     0.003662673 RMS     0.001697489

 GradGradGradGradGradGradGradGradGradGradGradGradGradGradGradGradGradGrad
 Berny optimization.
 FormGI is forming the generalized inverse of G from B-inverse, IUseBI=4.
 Internal  Forces:  Max     0.002770806 RMS     0.001634251
 Search for a local minimum.
 Step number   1 out of a maximum of   20
 All quantities printed in internal units (Hartrees-Bohrs-Radians)
 Mixed Optimization -- RFO/linear search
 Second derivative matrix not updated -- first step.
 The second derivative matrix:
                          R1        R2        R3        A1        A2
           R1           0.47688
           R2           0.00000   0.47688
           R3           0.00000   0.00000   0.47688
           A1           0.00000   0.00000   0.00000   0.16000
           A2           0.00000   0.00000   0.00000   0.00000   0.16000
           A3           0.00000   0.00000   0.00000   0.00000   0.00000
           D1           0.00000   0.00000   0.00000   0.00000   0.00000
                          A3        D1
           A3           0.16000
           D1           0.00000   0.01028
 ITU=  0
     Eigenvalues ---    0.05635   0.16000   0.16000   0.47688   0.47688
     Eigenvalues ---    0.47688
 RFO step:  Lambda=-2.30606449D-04 EMin= 5.63503505D-02
 Linear search not attempted -- first point.
 Iteration  1 RMS(Cart)=  0.01514340 RMS(Int)=  0.00051203
 Iteration  2 RMS(Cart)=  0.00028047 RMS(Int)=  0.00041723
 Iteration  3 RMS(Cart)=  0.00000003 RMS(Int)=  0.00041723
 ClnCor:  largest displacement from symmetrization is 7.78D-04 for atom     4.
 Variable       Old X    -DE/DX   Delta X   Delta X   Delta X     New X
                                 (Linear)    (Quad)   (Total)
    R1        1.88973  -0.00102   0.00000  -0.00213  -0.00191   1.88781
    R2        1.88973  -0.00102   0.00000  -0.00213  -0.00191   1.88781
    R3        1.88973  -0.00102   0.00000  -0.00213  -0.00191   1.88781
    A1        1.91063  -0.00028   0.00000  -0.01901  -0.02073   1.88991
    A2        1.91063  -0.00198   0.00000  -0.02098  -0.02073   1.88991
    A3        1.91063  -0.00198   0.00000  -0.02098  -0.02073   1.88991
    D1       -2.09439   0.00277   0.00000   0.04897   0.04882  -2.04557
         Item               Value     Threshold  Converged?
 Maximum Force            0.002771     0.000450     NO 
 RMS     Force            0.001634     0.000300     NO 
 Maximum Displacement     0.021682     0.001800     NO 
 RMS     Displacement     0.015152     0.001200     NO 
 Predicted change in Energy=-1.110679D-04
 GradGradGradGradGradGradGradGradGradGradGradGradGradGradGradGradGradGrad

                          Input orientation:                          
 ---------------------------------------------------------------------
 Center     Atomic      Atomic             Coordinates (Angstroms)
 Number     Number       Type             X           Y           Z
 ---------------------------------------------------------------------
      1          7           0       -0.006624    0.011474   -0.004684
      2          1           0        0.003512   -0.006084    0.994098
      3          1           0        0.938415   -0.006083   -0.328054
      4          1           0       -0.463939   -0.815733   -0.328055
 ---------------------------------------------------------------------
                    Distance matrix (angstroms):
                    1          2          3          4
     1  N    0.000000
     2  H    0.998988   0.000000
     3  H    0.998988   1.619299   0.000000
     4  H    0.998988   1.619299   1.619299   0.000000
 Stoichiometry    H3N
 Framework group  C3V[C3(N),3SGV(H)]
 Deg. of freedom     2
 Full point group                 C3V     NOp   6
 Largest Abelian subgroup         CS      NOp   2
 Largest concise Abelian subgroup CS      NOp   2
                         Standard orientation:                         
 ---------------------------------------------------------------------
 Center     Atomic      Atomic             Coordinates (Angstroms)
 Number     Number       Type             X           Y           Z
 ---------------------------------------------------------------------
      1          7           0       -0.000000    0.000000    0.105612
      2          1           0        0.000000    0.934903   -0.246429
      3          1           0       -0.809650   -0.467451   -0.246429
      4          1           0        0.809650   -0.467451   -0.246429
 ---------------------------------------------------------------------
 Rotational constants (GHZ):         310.1446585         310.1446585         191.2396121
 Standard basis: 6-311++G(2d,p) (5D, 7F)
 There are    34 symmetry adapted cartesian basis functions of A'  symmetry.
 There are    16 symmetry adapted cartesian basis functions of A"  symmetry.
 There are    32 symmetry adapted basis functions of A'  symmetry.
 There are    16 symmetry adapted basis functions of A"  symmetry.
    48 basis functions,    69 primitive gaussians,    50 cartesian basis functions
     5 alpha electrons        5 beta electrons
       nuclear repulsion energy        12.1043635479 Hartrees.
 NAtoms=    4 NActive=    4 NUniq=    2 SFac= 4.00D+00 NAtFMM=   60 NAOKFM=F Big=F
 Integral buffers will be    131072 words long.
 Raffenetti 1 integral format.
 Two-electron integral symmetry is turned on.
 One-electron integrals computed using PRISM.
 NBasis=    48 RedAO= T EigKep=  2.55D-03  NBF=    32    16
 NBsUse=    48 1.00D-06 EigRej= -1.00D+00 NBFU=    32    16
 Initial guess from the checkpoint file:  "test2.chk"
 B after Tr=    -0.000000    0.000000   -0.000000
         Rot=    1.000000    0.000000   -0.000000    0.000000 Ang=   0.00 deg.
 Initial guess orbital symmetries:
       Occupied  (A1) (A1) (E) (E) (A1)
       Virtual   (A1) (E) (E) (A1) (E) (E) (A1) (E) (E) (A1) (E)
                 (E) (A1) (A1) (E) (E) (E) (E) (A1) (A1) (E) (E)
                 (A2) (E) (E) (A1) (E) (E) (A1) (E) (E) (E) (E)
                 (A1) (A1) (E) (E) (E) (E) (A1) (E) (E) (A1)
 ExpMin= 3.60D-02 ExpMax= 6.29D+03 ExpMxC= 9.49D+02 IAcc=3 IRadAn=         5 AccDes= 0.00D+00
 Harris functional with IExCor=  205 and IRadAn=       5 diagonalized for initial guess.
 HarFok:  IExCor=  205 AccDes= 0.00D+00 IRadAn=         5 IDoV= 1 UseB2=F ITyADJ=14
 ICtDFT=  3500011 ScaDFX=  1.000000  1.000000  1.000000  1.000000
 FoFCou: FMM=F IPFlag=           0 FMFlag=      100000 FMFlg1=           0
         NFxFlg=           0 DoJE=T BraDBF=F KetDBF=T FulRan=T
         wScrn=  0.000000 ICntrl=       500 IOpCl=  0 I1Cent=   200000004 NGrid=           0
         NMat0=    1 NMatS0=      1 NMatT0=    0 NMatD0=    1 NMtDS0=    0 NMtDT0=    0
 Petite list used in FoFCou.
 Keep R1 ints in memory in symmetry-blocked form, NReq=1532768.
 Requested convergence on RMS density matrix=1.00D-08 within 128 cycles.
 Requested convergence on MAX density matrix=1.00D-06.
 Requested convergence on             energy=1.00D-06.
 No special actions if energy rises.
 SCF Done:  E(RHF) =  -56.2157985697     A.U. after    9 cycles
            NFock=  9  Conv=0.54D-08     -V/T= 2.0001
 Calling FoFJK, ICntrl=      2127 FMM=F ISym2X=1 I1Cent= 0 IOpClX= 0 NMat=1 NMatS=1 NMatT=0.
 ***** Axes restored to original set *****
 -------------------------------------------------------------------
 Center     Atomic                   Forces (Hartrees/Bohr)
 Number     Number              X              Y              Z
 -------------------------------------------------------------------
      1        7          -0.001158790    0.002007082   -0.000819388
      2        1           0.000221219   -0.000383163    0.001206759
      3        1           0.001211483   -0.000383162   -0.000193686
      4        1          -0.000273913   -0.001240757   -0.000193686
 -------------------------------------------------------------------
 Cartesian Forces:  Max     0.002007082 RMS     0.000957367

 GradGradGradGradGradGradGradGradGradGradGradGradGradGradGradGradGradGrad
 Berny optimization.
 Using GEDIIS/GDIIS optimizer.
 FormGI is forming the generalized inverse of G from B-inverse, IUseBI=4.
 Internal  Forces:  Max     0.001215490 RMS     0.000859081
 Search for a local minimum.
 Step number   2 out of a maximum of   20
 All quantities printed in internal units (Hartrees-Bohrs-Radians)
 Mixed Optimization -- En-DIIS/RFO-DIIS
 Update second derivatives using D2CorX and points    1    2
 DE= -1.37D-04 DEPred=-1.11D-04 R= 1.24D+00
 TightC=F SS=  1.41D+00  RLast= 6.07D-02 DXNew= 5.0454D-01 1.8207D-01
 Trust test= 1.24D+00 RLast= 6.07D-02 DXMaxT set to 3.00D-01
 The second derivative matrix:
                          R1        R2        R3        A1        A2
           R1           0.49988
           R2           0.02299   0.49988
           R3           0.02299   0.02299   0.49988
           A1          -0.01038  -0.01038  -0.01038   0.11362
           A2           0.00540   0.00540   0.00540  -0.04493   0.12591
           A3           0.00540   0.00540   0.00540  -0.04493  -0.03409
           D1          -0.02416  -0.02416  -0.02416   0.00465  -0.01087
                          A3        D1
           A3           0.12591
           D1          -0.01087   0.03490
 ITU=  1  0
 Use linear search instead of GDIIS.
     Eigenvalues ---    0.04137   0.15591   0.16000   0.47688   0.47688
     Eigenvalues ---    0.54865
 RFO step:  Lambda=-1.78252929D-05 EMin= 4.13719546D-02
 Quartic linear search produced a step of  0.20076.
 Iteration  1 RMS(Cart)=  0.00433081 RMS(Int)=  0.00012973
 Iteration  2 RMS(Cart)=  0.00003475 RMS(Int)=  0.00012416
 Iteration  3 RMS(Cart)=  0.00000000 RMS(Int)=  0.00012416
 ClnCor:  largest displacement from symmetrization is 1.17D-04 for atom     4.
 Variable       Old X    -DE/DX   Delta X   Delta X   Delta X     New X
                                 (Linear)    (Quad)   (Total)
    R1        1.88781   0.00122  -0.00038   0.00332   0.00297   1.89078
    R2        1.88781   0.00122  -0.00038   0.00332   0.00297   1.89078
    R3        1.88781   0.00122  -0.00038   0.00332   0.00297   1.89078
    A1        1.88991  -0.00008  -0.00416  -0.00244  -0.00697   1.88294
    A2        1.88991  -0.00045  -0.00416  -0.00280  -0.00697   1.88294
    A3        1.88991  -0.00045  -0.00416  -0.00280  -0.00697   1.88294
    D1       -2.04557   0.00057   0.00980   0.00592   0.01561  -2.02996
         Item               Value     Threshold  Converged?
 Maximum Force            0.001215     0.000450     NO 
 RMS     Force            0.000859     0.000300     NO 
 Maximum Displacement     0.007841     0.001800     NO 
 RMS     Displacement     0.004332     0.001200     NO 
 Predicted change in Energy=-1.374816D-05
 GradGradGradGradGradGradGradGradGradGradGradGradGradGradGradGradGradGrad

                          Input orientation:                          
 ---------------------------------------------------------------------
 Center     Atomic      Atomic             Coordinates (Angstroms)
 Number     Number       Type             X           Y           Z
 ---------------------------------------------------------------------
      1          7           0       -0.009020    0.015623   -0.006378
      2          1           0        0.004458   -0.007721    0.993818
      3          1           0        0.938467   -0.007721   -0.327070
      4          1           0       -0.462547   -0.816597   -0.327070
 ---------------------------------------------------------------------
                    Distance matrix (angstroms):
                    1          2          3          4
     1  N    0.000000
     2  H    1.000560   0.000000
     3  H    1.000560   1.617751   0.000000
     4  H    1.000560   1.617751   1.617751   0.000000
 Stoichiometry    H3N
 Framework group  C3V[C3(N),3SGV(H)]
 Deg. of freedom     2
 Full point group                 C3V     NOp   6
 Largest Abelian subgroup         CS      NOp   2
 Largest concise Abelian subgroup CS      NOp   2
                         Standard orientation:                         
 ---------------------------------------------------------------------
 Center     Atomic      Atomic             Coordinates (Angstroms)
 Number     Number       Type             X           Y           Z
 ---------------------------------------------------------------------
      1          7           0       -0.000000    0.000000    0.107644
      2          1           0        0.000000    0.934009   -0.251169
      3          1           0       -0.808876   -0.467005   -0.251169
      4          1           0        0.808876   -0.467005   -0.251169
 ---------------------------------------------------------------------
 Rotational constants (GHZ):         308.3575495         308.3575495         191.6058052
 Standard basis: 6-311++G(2d,p) (5D, 7F)
 There are    34 symmetry adapted cartesian basis functions of A'  symmetry.
 There are    16 symmetry adapted cartesian basis functions of A"  symmetry.
 There are    32 symmetry adapted basis functions of A'  symmetry.
 There are    16 symmetry adapted basis functions of A"  symmetry.
    48 basis functions,    69 primitive gaussians,    50 cartesian basis functions
     5 alpha electrons        5 beta electrons
       nuclear repulsion energy        12.0878260285 Hartrees.
 NAtoms=    4 NActive=    4 NUniq=    2 SFac= 4.00D+00 NAtFMM=   60 NAOKFM=F Big=F
 Integral buffers will be    131072 words long.
 Raffenetti 1 integral format.
 Two-electron integral symmetry is turned on.
 One-electron integrals computed using PRISM.
 NBasis=    48 RedAO= T EigKep=  2.51D-03  NBF=    32    16
 NBsUse=    48 1.00D-06 EigRej= -1.00D+00 NBFU=    32    16
 Initial guess from the checkpoint file:  "test2.chk"
 B after Tr=     0.000000   -0.000000   -0.000000
         Rot=    1.000000    0.000000   -0.000000    0.000000 Ang=   0.00 deg.
 Initial guess orbital symmetries:
       Occupied  (A1) (A1) (E) (E) (A1)
       Virtual   (A1) (E) (E) (A1) (E) (E) (A1) (E) (E) (A1) (E)
                 (E) (A1) (A1) (E) (E) (E) (E) (A1) (A1) (E) (E)
                 (A2) (E) (E) (A1) (E) (E) (A1) (E) (E) (E) (E)
                 (A1) (A1) (E) (E) (E) (E) (A1) (E) (E) (A1)
 Keep R1 ints in memory in symmetry-blocked form, NReq=1532768.
 Requested convergence on RMS density matrix=1.00D-08 within 128 cycles.
 Requested convergence on MAX density matrix=1.00D-06.
 Requested convergence on             energy=1.00D-06.
 No special actions if energy rises.
 SCF Done:  E(RHF) =  -56.2158122861     A.U. after    9 cycles
            NFock=  9  Conv=0.27D-08     -V/T= 2.0002
 Calling FoFJK, ICntrl=      2127 FMM=F ISym2X=1 I1Cent= 0 IOpClX= 0 NMat=1 NMatS=1 NMatT=0.
 ***** Axes restored to original set *****
 -------------------------------------------------------------------
 Center     Atomic                   Forces (Hartrees/Bohr)
 Number     Number              X              Y              Z
 -------------------------------------------------------------------
      1        7          -0.000050649    0.000087726   -0.000035814
      2        1          -0.000002648    0.000004586    0.000122419
      3        1           0.000114536    0.000004586   -0.000043303
      4        1          -0.000061239   -0.000096898   -0.000043303
 -------------------------------------------------------------------
 Cartesian Forces:  Max     0.000122419 RMS     0.000068670

 GradGradGradGradGradGradGradGradGradGradGradGradGradGradGradGradGradGrad
 Berny optimization.
 Using GEDIIS/GDIIS optimizer.
 FormGI is forming the generalized inverse of G from B-inverse, IUseBI=4.
 Internal  Forces:  Max     0.000122232 RMS     0.000080299
 Search for a local minimum.
 Step number   3 out of a maximum of   20
 All quantities printed in internal units (Hartrees-Bohrs-Radians)
 Mixed Optimization -- En-DIIS/RFO-DIIS
 Swapping is turned off.
 Update second derivatives using D2CorX and points    1    2    3
 DE= -1.37D-05 DEPred=-1.37D-05 R= 9.98D-01
 TightC=F SS=  1.41D+00  RLast= 2.04D-02 DXNew= 5.0454D-01 6.1181D-02
 Trust test= 9.98D-01 RLast= 2.04D-02 DXMaxT set to 3.00D-01
 The second derivative matrix:
                          R1        R2        R3        A1        A2
           R1           0.48930
           R2           0.01242   0.48930
           R3           0.01242   0.01242   0.48930
           A1          -0.00626  -0.00626  -0.00626   0.11258
           A2           0.00811   0.00811   0.00811  -0.04711   0.12607
           A3           0.00811   0.00811   0.00811  -0.04711  -0.03393
           D1          -0.02335  -0.02335  -0.02335   0.00673  -0.01370
                          A3        D1
           A3           0.12607
           D1          -0.01370   0.04164
 ITU=  1  1  0
     Eigenvalues ---    0.04484   0.15706   0.16000   0.47688   0.47688
     Eigenvalues ---    0.51789
 En-DIIS/RFO-DIIS/Sim-DIIS IScMMF=       -3 using points:     3    2
 RFO step:  Lambda=-8.63327129D-08.
 DidBck=F Rises=F RFO-DIIS coefs:    1.00435   -0.00435
 Iteration  1 RMS(Cart)=  0.00014940 RMS(Int)=  0.00000019
 Iteration  2 RMS(Cart)=  0.00000000 RMS(Int)=  0.00000019
 ClnCor:  largest displacement from symmetrization is 2.04D-06 for atom     4.
 Variable       Old X    -DE/DX   Delta X   Delta X   Delta X     New X
                                 (Linear)    (Quad)   (Total)
    R1        1.89078   0.00012   0.00001   0.00022   0.00024   1.89102
    R2        1.89078   0.00012   0.00001   0.00022   0.00024   1.89102
    R3        1.89078   0.00012   0.00001   0.00022   0.00024   1.89102
    A1        1.88294   0.00000  -0.00003   0.00003   0.00001   1.88294
    A2        1.88294   0.00001  -0.00003   0.00004   0.00001   1.88294
    A3        1.88294   0.00001  -0.00003   0.00004   0.00001   1.88294
    D1       -2.02996  -0.00001   0.00007  -0.00008  -0.00001  -2.02998
         Item               Value     Threshold  Converged?
 Maximum Force            0.000122     0.000450     YES
 RMS     Force            0.000080     0.000300     YES
 Maximum Displacement     0.000218     0.001800     YES
 RMS     Displacement     0.000149     0.001200     YES
 Predicted change in Energy=-4.359663D-08
 Optimization completed.
    -- Stationary point found.
                           ----------------------------
                           !   Optimized Parameters   !
                           ! (Angstroms and Degrees)  !
 --------------------------                            --------------------------
 ! Name  Definition              Value          Derivative Info.                !
 --------------------------------------------------------------------------------
 ! R1    R(1,2)                  1.0006         -DE/DX =    0.0001              !
 ! R2    R(1,3)                  1.0006         -DE/DX =    0.0001              !
 ! R3    R(1,4)                  1.0006         -DE/DX =    0.0001              !
 ! A1    A(2,1,3)              107.8843         -DE/DX =    0.0                 !
 ! A2    A(2,1,4)              107.8843         -DE/DX =    0.0                 !
 ! A3    A(3,1,4)              107.8843         -DE/DX =    0.0                 !
 ! D1    D(2,1,4,3)           -116.3083         -DE/DX =    0.0                 !
 --------------------------------------------------------------------------------
 GradGradGradGradGradGradGradGradGradGradGradGradGradGradGradGradGradGrad

                          Input orientation:                          
 ---------------------------------------------------------------------
 Center     Atomic      Atomic             Coordinates (Angstroms)
 Number     Number       Type             X           Y           Z
 ---------------------------------------------------------------------
      1          7           0       -0.009020    0.015623   -0.006378
      2          1           0        0.004458   -0.007721    0.993818
      3          1           0        0.938467   -0.007721   -0.327070
      4          1           0       -0.462547   -0.816597   -0.327070
 ---------------------------------------------------------------------
                    Distance matrix (angstroms):
                    1          2          3          4
     1  N    0.000000
     2  H    1.000560   0.000000
     3  H    1.000560   1.617751   0.000000
     4  H    1.000560   1.617751   1.617751   0.000000
 Stoichiometry    H3N
 Framework group  C3V[C3(N),3SGV(H)]
 Deg. of freedom     2
 Full point group                 C3V     NOp   6
 Largest Abelian subgroup         CS      NOp   2
 Largest concise Abelian subgroup CS      NOp   2
                         Standard orientation:                         
 ---------------------------------------------------------------------
 Center     Atomic      Atomic             Coordinates (Angstroms)
 Number     Number       Type             X           Y           Z
 ---------------------------------------------------------------------
      1          7           0       -0.000000    0.000000    0.107644
      2          1           0        0.000000    0.934009   -0.251169
      3          1           0       -0.808876   -0.467005   -0.251169
      4          1           0        0.808876   -0.467005   -0.251169
 ---------------------------------------------------------------------
 Rotational constants (GHZ):         308.3575495         308.3575495         191.6058052

 **********************************************************************

            Population analysis using the SCF Density.

 **********************************************************************

 Orbital symmetries:
       Occupied  (A1) (A1) (E) (E) (A1)
       Virtual   (A1) (E) (E) (A1) (E) (E) (A1) (E) (E) (A1) (E)
                 (E) (A1) (A1) (E) (E) (E) (E) (A1) (A1) (E) (E)
                 (A2) (E) (E) (A1) (E) (E) (A1) (E) (E) (E) (E)
                 (A1) (A1) (E) (E) (E) (E) (A1) (E) (E) (A1)
 The electronic state is 1-A1.
 Alpha  occ. eigenvalues --  -15.53650  -1.14728  -0.63645  -0.63645  -0.42614
 Alpha virt. eigenvalues --    0.04378   0.07388   0.07388   0.17997   0.21761
 Alpha virt. eigenvalues --    0.21761   0.24388   0.31207   0.31207   0.32733
 Alpha virt. eigenvalues --    0.64846   0.64846   0.81954   0.99288   1.01450
 Alpha virt. eigenvalues --    1.01450   1.10516   1.10516   1.22649   1.39684
 Alpha virt. eigenvalues --    1.63775   1.63775   1.79728   1.95295   1.95295
 Alpha virt. eigenvalues --    2.32285   2.53918   2.53918   2.76362   2.87977
 Alpha virt. eigenvalues --    2.87977   2.93743   2.93743   3.16585   4.49216
 Alpha virt. eigenvalues --    5.08078   5.08078   5.27052   5.27052   5.31735
 Alpha virt. eigenvalues --    5.74265   5.74265  37.09173
          Condensed to atoms (all electrons):
               1          2          3          4
     1  N    6.507179   0.393636   0.393636   0.393636
     2  H    0.393636   0.450409  -0.036704  -0.036704
     3  H    0.393636  -0.036704   0.450409  -0.036704
     4  H    0.393636  -0.036704  -0.036704   0.450409
 Mulliken charges:
               1
     1  N   -0.688088
     2  H    0.229363
     3  H    0.229363
     4  H    0.229363
 Sum of Mulliken charges =  -0.00000
 Mulliken charges with hydrogens summed into heavy atoms:
               1
     1  N   -0.000000
 Electronic spatial extent (au):  <R**2>=             26.4344
 Charge=             -0.0000 electrons
 Dipole moment (field-independent basis, Debye):
    X=             -0.0000    Y=             -0.0000    Z=             -1.6621  Tot=              1.6621
 Quadrupole moment (field-independent basis, Debye-Ang):
   XX=             -6.1498   YY=             -6.1498   ZZ=             -9.3864
   XY=              0.0000   XZ=             -0.0000   YZ=             -0.0000
 Traceless Quadrupole moment (field-independent basis, Debye-Ang):
   XX=              1.0788   YY=              1.0788   ZZ=             -2.1577
   XY=              0.0000   XZ=             -0.0000   YZ=             -0.0000
 Octapole moment (field-independent basis, Debye-Ang**2):
  XXX=             -0.0000  YYY=              0.9463  ZZZ=             -1.6264  XYY=              0.0000
  XXY=             -0.9463  XXZ=             -0.9383  XZZ=              0.0000  YZZ=              0.0000
  YYZ=             -0.9383  XYZ=              0.0000
 Hexadecapole moment (field-independent basis, Debye-Ang**3):
 XXXX=             -9.7249 YYYY=             -9.7249 ZZZZ=            -12.6760 XXXY=              0.0000
 XXXZ=              0.0000 YYYX=              0.0000 YYYZ=             -0.3539 ZZZX=              0.0000
 ZZZY=             -0.0000 XXYY=             -3.2416 XXZZ=             -3.8294 YYZZ=             -3.8294
 XXYZ=              0.3539 YYXZ=             -0.0000 ZZXY=             -0.0000
 N-N= 1.208782602852D+01 E-N=-1.560462492022D+02  KE= 5.620460081536D+01
 Symmetry A'   KE= 5.356901290667D+01
 Symmetry A"   KE= 2.635587908688D+00
 B after Tr=     0.010236   -0.017730    0.007238
         Rot=    1.000000    0.000000   -0.000000    0.000000 Ang=   0.00 deg.
 Final structure in terms of initial Z-matrix:
 N
 H,1,B1
 H,1,B2,2,A1
 H,1,B3,3,A2,2,D1,0
      Variables:
 B1=1.00055963
 B2=1.00055963
 B3=1.00055963
 A1=107.88430208
 A2=107.88430208
 D1=-116.30830516
 Unable to Open any file for archive entry.
 1\1\GINC-SHRINE\FOpt\RHF\6-311++G(2d,p)\H3N1\LNIFE\10-Mar-2025\0\\# op
 t freq hf/6-311++g(2d,p) geom=connectivity\\Title Card Required\\0,1\N
 ,-0.0090201436,0.0156233119,-0.0063781861\H,0.0044575751,-0.0077210646
 ,0.9938182731\H,0.9384667976,-0.0077208363,-0.3270698025\H,-0.46254656
 08,-0.8165966645,-0.3270700404\\Version=ES64L-G16RevC.01\State=1-A1\HF
 =-56.2158123\RMSD=2.675e-09\RMSF=6.867e-05\Dipole=0.3082605,-0.5339226
 ,0.2179731\Quadrupole=0.2673654,-0.8020966,0.5347312,0.9261819,-0.3781
 123,0.6549095\PG=C03V [C3(N1),3SGV(H1)]\\@
 The archive entry for this job was punched.


 WHEN ALL ELSE FAILS, TRY THE BOSS'S SUGGESTION.
 Job cpu time:       0 days  0 hours  0 minutes 12.5 seconds.
 Elapsed time:       0 days  0 hours  0 minutes  2.1 seconds.
 File lengths (MBytes):  RWF=      6 Int=      0 D2E=      0 Chk=      1 Scr=      1
 Normal termination of Gaussian 16 at Mon Mar 10 15:46:37 2025.
 Link1:  Proceeding to internal job step number  2.
 ----------------------------------------------------------------------
 #N Geom=AllCheck Guess=TCheck SCRF=Check GenChk RHF/6-311++G(2d,p) Fre
 q
 ----------------------------------------------------------------------
 1/10=4,29=7,30=1,38=1,40=1/1,3;
 2/12=2,40=1/2;
 3/5=4,6=6,7=1112,11=1,14=-4,25=1,30=1,70=2,71=2,116=1,140=1/1,2,3;
 4/5=101/1;
 5/5=2,38=6,98=1/2;
 8/6=4,10=90,11=11/1;
 10/13=10,15=4/2;
 11/6=3,8=1,9=11,15=111,16=1/1,2,10;
 10/6=1/2;
 6/7=2,8=2,9=2,10=2,28=1/1;
 7/8=1,10=1,25=1/1,2,3,16;
 1/10=4,30=1/3;
 99//99;
 Structure from the checkpoint file:  "test2.chk"
 -------------------
 Title Card Required
 -------------------
 Charge =  0 Multiplicity = 1
 Redundant internal coordinates found in file.  (old form).
 N,0,-0.0090201436,0.0156233119,-0.0063781861
 H,0,0.0044575751,-0.0077210646,0.9938182731
 H,0,0.9384667976,-0.0077208363,-0.3270698025
 H,0,-0.4625465608,-0.8165966645,-0.3270700404
 Recover connectivity data from disk.

 GradGradGradGradGradGradGradGradGradGradGradGradGradGradGradGradGradGrad
 Berny optimization.
 Initialization pass.
                           ----------------------------
                           !    Initial Parameters    !
                           ! (Angstroms and Degrees)  !
 --------------------------                            --------------------------
 ! Name  Definition              Value          Derivative Info.                !
 --------------------------------------------------------------------------------
 ! R1    R(1,2)                  1.0006         calculate D2E/DX2 analytically  !
 ! R2    R(1,3)                  1.0006         calculate D2E/DX2 analytically  !
 ! R3    R(1,4)                  1.0006         calculate D2E/DX2 analytically  !
 ! A1    A(2,1,3)              107.8843         calculate D2E/DX2 analytically  !
 ! A2    A(2,1,4)              107.8843         calculate D2E/DX2 analytically  !
 ! A3    A(3,1,4)              107.8843         calculate D2E/DX2 analytically  !
 ! D1    D(2,1,4,3)           -116.3083         calculate D2E/DX2 analytically  !
 --------------------------------------------------------------------------------
 Trust Radius=3.00D-01 FncErr=1.00D-07 GrdErr=1.00D-07 EigMax=2.50D+02 EigMin=1.00D-04
 Number of steps in this run=      2 maximum allowed number of steps=      2.
 GradGradGradGradGradGradGradGradGradGradGradGradGradGradGradGradGradGrad

                          Input orientation:                          
 ---------------------------------------------------------------------
 Center     Atomic      Atomic             Coordinates (Angstroms)
 Number     Number       Type             X           Y           Z
 ---------------------------------------------------------------------
      1          7           0       -0.009020    0.015623   -0.006378
      2          1           0        0.004458   -0.007721    0.993818
      3          1           0        0.938467   -0.007721   -0.327070
      4          1           0       -0.462547   -0.816597   -0.327070
 ---------------------------------------------------------------------
                    Distance matrix (angstroms):
                    1          2          3          4
     1  N    0.000000
     2  H    1.000560   0.000000
     3  H    1.000560   1.617751   0.000000
     4  H    1.000560   1.617751   1.617751   0.000000
 Stoichiometry    H3N
 Framework group  C3V[C3(N),3SGV(H)]
 Deg. of freedom     2
 Full point group                 C3V     NOp   6
 Largest Abelian subgroup         CS      NOp   2
 Largest concise Abelian subgroup CS      NOp   2
                         Standard orientation:                         
 ---------------------------------------------------------------------
 Center     Atomic      Atomic             Coordinates (Angstroms)
 Number     Number       Type             X           Y           Z
 ---------------------------------------------------------------------
      1          7           0        0.000000   -0.000000    0.107644
      2          1           0       -0.000000    0.934009   -0.251169
      3          1           0       -0.808876   -0.467005   -0.251169
      4          1           0        0.808876   -0.467005   -0.251169
 ---------------------------------------------------------------------
 Rotational constants (GHZ):         308.3575495         308.3575495         191.6058052
 Standard basis: 6-311++G(2d,p) (5D, 7F)
 There are    34 symmetry adapted cartesian basis functions of A'  symmetry.
 There are    16 symmetry adapted cartesian basis functions of A"  symmetry.
 There are    32 symmetry adapted basis functions of A'  symmetry.
 There are    16 symmetry adapted basis functions of A"  symmetry.
    48 basis functions,    69 primitive gaussians,    50 cartesian basis functions
     5 alpha electrons        5 beta electrons
       nuclear repulsion energy        12.0878260285 Hartrees.
 NAtoms=    4 NActive=    4 NUniq=    2 SFac= 4.00D+00 NAtFMM=   60 NAOKFM=F Big=F
 Integral buffers will be    131072 words long.
 Raffenetti 1 integral format.
 Two-electron integral symmetry is turned on.
 One-electron integrals computed using PRISM.
 NBasis=    48 RedAO= T EigKep=  2.51D-03  NBF=    32    16
 NBsUse=    48 1.00D-06 EigRej= -1.00D+00 NBFU=    32    16
 Initial guess from the checkpoint file:  "test2.chk"
 B after Tr=     0.000000   -0.000000   -0.000000
         Rot=    1.000000   -0.000000   -0.000000   -0.000000 Ang=   0.00 deg.
 Initial guess orbital symmetries:
       Occupied  (A1) (A1) (E) (E) (A1)
       Virtual   (A1) (E) (E) (A1) (E) (E) (A1) (E) (E) (A1) (E)
                 (E) (A1) (A1) (E) (E) (E) (E) (A1) (A1) (E) (E)
                 (A2) (E) (E) (A1) (E) (E) (A1) (E) (E) (E) (E)
                 (A1) (A1) (E) (E) (E) (E) (A1) (E) (E) (A1)
 Keep R1 ints in memory in symmetry-blocked form, NReq=1532768.
 Requested convergence on RMS density matrix=1.00D-08 within 128 cycles.
 Requested convergence on MAX density matrix=1.00D-06.
 Requested convergence on             energy=1.00D-06.
 No special actions if energy rises.
 SCF Done:  E(RHF) =  -56.2158122861     A.U. after    1 cycles
            NFock=  1  Conv=0.49D-09     -V/T= 2.0002
 Range of M.O.s used for correlation:     1    48
 NBasis=    48 NAE=     5 NBE=     5 NFC=     0 NFV=     0
 NROrb=     48 NOA=     5 NOB=     5 NVA=    43 NVB=    43
          Differentiating once with respect to electric field.
                with respect to dipole field.
          Electric field/nuclear overlap derivatives assumed to be zero.
 Keep R1 ints in memory in symmetry-blocked form, NReq=1533380.
          There are     3 degrees of freedom in the 1st order CPHF.  IDoFFX=0 NUNeed=     3.
      3 vectors produced by pass  0 Test12= 7.17D-15 3.33D-08 XBig12= 2.55D+00 8.38D-01.
 AX will form     3 AO Fock derivatives at one time.
      3 vectors produced by pass  1 Test12= 7.17D-15 3.33D-08 XBig12= 1.65D-01 1.72D-01.
      3 vectors produced by pass  2 Test12= 7.17D-15 3.33D-08 XBig12= 1.61D-02 6.70D-02.
      3 vectors produced by pass  3 Test12= 7.17D-15 3.33D-08 XBig12= 1.06D-03 1.60D-02.
      3 vectors produced by pass  4 Test12= 7.17D-15 3.33D-08 XBig12= 1.65D-05 1.48D-03.
      3 vectors produced by pass  5 Test12= 7.17D-15 3.33D-08 XBig12= 4.14D-07 3.66D-04.
      3 vectors produced by pass  6 Test12= 7.17D-15 3.33D-08 XBig12= 4.02D-09 2.47D-05.
      3 vectors produced by pass  7 Test12= 7.17D-15 3.33D-08 XBig12= 3.65D-11 1.87D-06.
      1 vectors produced by pass  8 Test12= 7.17D-15 3.33D-08 XBig12= 1.70D-13 1.38D-07.
 InvSVY:  IOpt=1 It=  1 EMax= 2.22D-16
 Solved reduced A of dimension    25 with     3 vectors.
 End of Minotr F.D. properties file   721 does not exist.
 End of Minotr F.D. properties file   722 does not exist.
 End of Minotr F.D. properties file   788 does not exist.
 Symmetrizing basis deriv contribution to polar:
 IMax=3 JMax=2 DiffMx= 0.00D+00
 G2DrvN: will do     5 centers at a time, making    1 passes.
 PxScal for G2LodP:  IOpCl= 0 ISclPx=1 IMOff=     1 NMtTot=     4 NTT=    1176 ScalPx= 4.58D+00
 Calling FoFCou, ICntrl=  3107 FMM=F I1Cent=   0 AccDes= 0.00D+00.
 End of G2Drv F.D. properties file   721 does not exist.
 End of G2Drv F.D. properties file   722 does not exist.
 End of G2Drv F.D. properties file   788 does not exist.
          IDoAtm=1111
          Differentiating once with respect to electric field.
                with respect to dipole field.
          Differentiating once with respect to nuclear coordinates.
 Keep R1 ints in memory in symmetry-blocked form, NReq=1533472.
          There are     9 degrees of freedom in the 1st order CPHF.  IDoFFX=4 NUNeed=     9.
 Will reuse    3 saved solutions.
      6 vectors produced by pass  0 Test12= 2.39D-15 1.11D-08 XBig12= 3.28D-02 6.17D-02.
 AX will form     6 AO Fock derivatives at one time.
      6 vectors produced by pass  1 Test12= 2.39D-15 1.11D-08 XBig12= 2.78D-03 2.09D-02.
      6 vectors produced by pass  2 Test12= 2.39D-15 1.11D-08 XBig12= 1.52D-04 5.63D-03.
      6 vectors produced by pass  3 Test12= 2.39D-15 1.11D-08 XBig12= 5.06D-06 9.68D-04.
      6 vectors produced by pass  4 Test12= 2.39D-15 1.11D-08 XBig12= 8.44D-08 1.25D-04.
      6 vectors produced by pass  5 Test12= 2.39D-15 1.11D-08 XBig12= 4.20D-10 6.53D-06.
      6 vectors produced by pass  6 Test12= 2.39D-15 1.11D-08 XBig12= 1.67D-12 3.80D-07.
      3 vectors produced by pass  7 Test12= 2.39D-15 1.11D-08 XBig12= 8.40D-15 3.73D-08.
 InvSVY:  IOpt=1 It=  1 EMax= 3.33D-16
 Solved reduced A of dimension    45 with     6 vectors.
 Isotropic polarizability for W=    0.000000       10.70 Bohr**3.
 End of Minotr F.D. properties file   721 does not exist.
 End of Minotr F.D. properties file   722 does not exist.
 End of Minotr F.D. properties file   788 does not exist.

 **********************************************************************

            Population analysis using the SCF Density.

 **********************************************************************

 Orbital symmetries:
       Occupied  (A1) (A1) (E) (E) (A1)
       Virtual   (A1) (E) (E) (A1) (E) (E) (A1) (E) (E) (A1) (E)
                 (E) (A1) (A1) (E) (E) (E) (E) (A1) (A1) (E) (E)
                 (A2) (E) (E) (A1) (E) (E) (A1) (E) (E) (E) (E)
                 (A1) (A1) (E) (E) (E) (E) (A1) (E) (E) (A1)
 The electronic state is 1-A1.
 Alpha  occ. eigenvalues --  -15.53650  -1.14728  -0.63645  -0.63645  -0.42614
 Alpha virt. eigenvalues --    0.04378   0.07388   0.07388   0.17997   0.21761
 Alpha virt. eigenvalues --    0.21761   0.24388   0.31207   0.31207   0.32733
 Alpha virt. eigenvalues --    0.64846   0.64846   0.81954   0.99288   1.01450
 Alpha virt. eigenvalues --    1.01450   1.10516   1.10516   1.22649   1.39684
 Alpha virt. eigenvalues --    1.63775   1.63775   1.79728   1.95295   1.95295
 Alpha virt. eigenvalues --    2.32285   2.53918   2.53918   2.76362   2.87977
 Alpha virt. eigenvalues --    2.87977   2.93743   2.93743   3.16585   4.49216
 Alpha virt. eigenvalues --    5.08078   5.08078   5.27052   5.27052   5.31735
 Alpha virt. eigenvalues --    5.74265   5.74265  37.09173
          Condensed to atoms (all electrons):
               1          2          3          4
     1  N    6.507179   0.393636   0.393636   0.393636
     2  H    0.393636   0.450409  -0.036704  -0.036704
     3  H    0.393636  -0.036704   0.450409  -0.036704
     4  H    0.393636  -0.036704  -0.036704   0.450409
 Mulliken charges:
               1
     1  N   -0.688088
     2  H    0.229363
     3  H    0.229363
     4  H    0.229363
 Sum of Mulliken charges =  -0.00000
 Mulliken charges with hydrogens summed into heavy atoms:
               1
     1  N   -0.000000
 APT charges:
               1
     1  N   -0.506138
     2  H    0.168713
     3  H    0.168713
     4  H    0.168713
 Sum of APT charges =   0.00000
 APT charges with hydrogens summed into heavy atoms:
               1
     1  N    0.000000
 Electronic spatial extent (au):  <R**2>=             26.4344
 Charge=              0.0000 electrons
 Dipole moment (field-independent basis, Debye):
    X=             -0.0000    Y=             -0.0000    Z=             -1.6621  Tot=              1.6621
 Quadrupole moment (field-independent basis, Debye-Ang):
   XX=             -6.1498   YY=             -6.1498   ZZ=             -9.3864
   XY=             -0.0000   XZ=             -0.0000   YZ=              0.0000
 Traceless Quadrupole moment (field-independent basis, Debye-Ang):
   XX=              1.0788   YY=              1.0788   ZZ=             -2.1577
   XY=             -0.0000   XZ=             -0.0000   YZ=              0.0000
 Octapole moment (field-independent basis, Debye-Ang**2):
  XXX=             -0.0000  YYY=              0.9463  ZZZ=             -1.6264  XYY=              0.0000
  XXY=             -0.9463  XXZ=             -0.9383  XZZ=              0.0000  YZZ=              0.0000
  YYZ=             -0.9383  XYZ=              0.0000
 Hexadecapole moment (field-independent basis, Debye-Ang**3):
 XXXX=             -9.7249 YYYY=             -9.7249 ZZZZ=            -12.6760 XXXY=              0.0000
 XXXZ=              0.0000 YYYX=              0.0000 YYYZ=             -0.3539 ZZZX=             -0.0000
 ZZZY=              0.0000 XXYY=             -3.2416 XXZZ=             -3.8294 YYZZ=             -3.8294
 XXYZ=              0.3539 YYXZ=             -0.0000 ZZXY=              0.0000
 N-N= 1.208782602852D+01 E-N=-1.560462492037D+02  KE= 5.620460081563D+01
 Symmetry A'   KE= 5.356901290402D+01
 Symmetry A"   KE= 2.635587911611D+00
  Exact polarizability:      10.515      -0.000      10.515      -0.000       0.000      11.060
 Approx polarizability:       8.869      -0.000       8.869      -0.000       0.000       8.730
 Calling FoFJK, ICntrl=    100127 FMM=F ISym2X=1 I1Cent= 0 IOpClX= 0 NMat=1 NMatS=1 NMatT=0.
 Full mass-weighted force constant matrix:
 Low frequencies ---  -41.7219  -41.5889  -41.5887   -0.0003    0.0011    0.0012
 Low frequencies --- 1120.8815 1794.1919 1794.1919
 Diagonal vibrational polarizability:
        0.2272438       0.2272438       4.5115542
 Diagonal vibrational hyperpolarizability:
       -0.0000000      -1.6347295      14.4092727
 Harmonic frequencies (cm**-1), IR intensities (KM/Mole), Raman scattering
 activities (A**4/AMU), depolarization ratios for plane and unpolarized
 incident light, reduced masses (AMU), force constants (mDyne/A),
 and normal coordinates:
                      1                      2                      3
                     A1                      E                      E
 Frequencies --   1120.8815              1794.1919              1794.1919
 Red. masses --      1.1823                 1.0676                 1.0676
 Frc consts  --      0.8752                 2.0249                 2.0249
 IR Inten    --    210.5603                25.9577                25.9577
 Raman Activ --      2.6066                 4.6605                 4.6605
 Depolar (P) --      0.7495                 0.7500                 0.7500
 Depolar (U) --      0.8568                 0.8571                 0.8571
  Atom  AN      X      Y      Z        X      Y      Z        X      Y      Z
     1   7    -0.00  -0.00  -0.12     0.00  -0.07   0.00    -0.07  -0.00  -0.00
     2   1    -0.00   0.20   0.54    -0.00  -0.14  -0.24     0.77  -0.00  -0.00
     3   1    -0.17  -0.10   0.54    -0.39   0.54   0.12     0.09  -0.39   0.21
     4   1     0.17  -0.10   0.54     0.39   0.54   0.12     0.09   0.39  -0.21
                      4                      5                      6
                     A1                      E                      E
 Frequencies --   3688.2256              3810.8937              3810.8937
 Red. masses --      1.0255                 1.0915                 1.0915
 Frc consts  --      8.2187                 9.3392                 9.3392
 IR Inten    --      0.7141                 5.5275                 5.5275
 Raman Activ --    125.7102                50.8061                50.8061
 Depolar (P) --      0.0334                 0.7500                 0.7500
 Depolar (U) --      0.0647                 0.8571                 0.8571
  Atom  AN      X      Y      Z        X      Y      Z        X      Y      Z
     1   7     0.00  -0.00   0.04    -0.08  -0.00   0.00     0.00  -0.08  -0.00
     2   1     0.00   0.55  -0.17    -0.02   0.02  -0.01     0.00   0.76  -0.29
     3   1    -0.48  -0.28  -0.17     0.58   0.34   0.25     0.32   0.17   0.14
     4   1     0.48  -0.28  -0.17     0.56  -0.33  -0.24    -0.35   0.19   0.15

 -------------------
 - Thermochemistry -
 -------------------
 Temperature   298.150 Kelvin.  Pressure   1.00000 Atm.
 Atom     1 has atomic number  7 and mass  14.00307
 Atom     2 has atomic number  1 and mass   1.00783
 Atom     3 has atomic number  1 and mass   1.00783
 Atom     4 has atomic number  1 and mass   1.00783
 Molecular mass:    17.02655 amu.
 Principal axes and moments of inertia in atomic units:
                           1         2         3
     Eigenvalues --     5.85276   5.85276   9.41903
           X           -0.34270   0.93944  -0.00000
           Y            0.93944   0.34270  -0.00000
           Z            0.00000   0.00000   1.00000
 This molecule is an oblate symmetric top.
 Rotational symmetry number  3.
 Rotational temperatures (Kelvin)     14.79883    14.79883     9.19563
 Rotational constants (GHZ):         308.35755   308.35755   191.60581
 Zero-point vibrational energy      95816.6 (Joules/Mol)
                                   22.90071 (Kcal/Mol)
 Vibrational temperatures:   1612.70  2581.44  2581.44  5306.53  5483.03
          (Kelvin)           5483.03
 
 Zero-point correction=                           0.036495 (Hartree/Particle)
 Thermal correction to Energy=                    0.039353
 Thermal correction to Enthalpy=                  0.040297
 Thermal correction to Gibbs Free Energy=         0.018506
 Sum of electronic and zero-point Energies=            -56.179318
 Sum of electronic and thermal Energies=               -56.176459
 Sum of electronic and thermal Enthalpies=             -56.175515
 Sum of electronic and thermal Free Energies=          -56.197307
 
                     E (Thermal)             CV                S
                      KCal/Mol        Cal/Mol-Kelvin    Cal/Mol-Kelvin
 Total                   24.694              6.276             45.864
 Electronic               0.000              0.000              0.000
 Translational            0.889              2.981             34.441
 Rotational               0.889              2.981             11.359
 Vibrational             22.917              0.314              0.064
                       Q            Log10(Q)             Ln(Q)
 Total Bot       0.307606D-08         -8.512006        -19.599617
 Total V=0       0.188075D+09          8.274331         19.052351
 Vib (Bot)       0.164347D-16        -16.784237        -38.647134
 Vib (V=0)       0.100485D+01          0.002099          0.004834
 Electronic      0.100000D+01          0.000000          0.000000
 Translational   0.276149D+07          6.441144         14.831282
 Rotational      0.677779D+02          1.831088          4.216236
 ***** Axes restored to original set *****
 -------------------------------------------------------------------
 Center     Atomic                   Forces (Hartrees/Bohr)
 Number     Number              X              Y              Z
 -------------------------------------------------------------------
      1        7          -0.000050649    0.000087726   -0.000035814
      2        1          -0.000002648    0.000004586    0.000122419
      3        1           0.000114535    0.000004586   -0.000043303
      4        1          -0.000061239   -0.000096898   -0.000043303
 -------------------------------------------------------------------
 Cartesian Forces:  Max     0.000122419 RMS     0.000068670
 FormGI is forming the generalized inverse of G from B-inverse, IUseBI=4.

 GradGradGradGradGradGradGradGradGradGradGradGradGradGradGradGradGradGrad
 Berny optimization.
 Internal  Forces:  Max     0.000122232 RMS     0.000080299
 Search for a local minimum.
 Step number   1 out of a maximum of    2
 All quantities printed in internal units (Hartrees-Bohrs-Radians)
 Second derivative matrix not updated -- analytic derivatives used.
 The second derivative matrix:
                          R1        R2        R3        A1        A2
           R1           0.50776
           R2          -0.00041   0.50776
           R3          -0.00041  -0.00041   0.50776
           A1           0.00769   0.00769  -0.00875   0.06180
           A2           0.01870  -0.00360   0.02129  -0.04814   0.14397
           A3          -0.00360   0.01870   0.02129  -0.04814  -0.02494
           D1          -0.01686  -0.01686  -0.01187  -0.02242  -0.00542
                          A3        D1
           A3           0.14397
           D1          -0.00542   0.03191
 ITU=  0
     Eigenvalues ---    0.04568   0.16201   0.16745   0.50891   0.50962
     Eigenvalues ---    0.51126
 Angle between quadratic step and forces=   2.48 degrees.
 Linear search not attempted -- first point.
 Iteration  1 RMS(Cart)=  0.00015175 RMS(Int)=  0.00000000
 Iteration  2 RMS(Cart)=  0.00000000 RMS(Int)=  0.00000000
 ClnCor:  largest displacement from symmetrization is 3.07D-10 for atom     4.
 Variable       Old X    -DE/DX   Delta X   Delta X   Delta X     New X
                                 (Linear)    (Quad)   (Total)
    R1        1.89078   0.00012   0.00000   0.00024   0.00024   1.89102
    R2        1.89078   0.00012   0.00000   0.00024   0.00024   1.89102
    R3        1.89078   0.00012   0.00000   0.00024   0.00024   1.89102
    A1        1.88294   0.00000   0.00000   0.00001   0.00001   1.88294
    A2        1.88294   0.00001   0.00000   0.00001   0.00001   1.88294
    A3        1.88294   0.00001   0.00000   0.00001   0.00001   1.88294
    D1       -2.02996  -0.00001   0.00000  -0.00002  -0.00002  -2.02998
         Item               Value     Threshold  Converged?
 Maximum Force            0.000122     0.000450     YES
 RMS     Force            0.000080     0.000300     YES
 Maximum Displacement     0.000222     0.001800     YES
 RMS     Displacement     0.000152     0.001200     YES
 Predicted change in Energy=-4.421732D-08
 Optimization completed.
    -- Stationary point found.
                           ----------------------------
                           !   Optimized Parameters   !
                           ! (Angstroms and Degrees)  !
 --------------------------                            --------------------------
 ! Name  Definition              Value          Derivative Info.                !
 --------------------------------------------------------------------------------
 ! R1    R(1,2)                  1.0006         -DE/DX =    0.0001              !
 ! R2    R(1,3)                  1.0006         -DE/DX =    0.0001              !
 ! R3    R(1,4)                  1.0006         -DE/DX =    0.0001              !
 ! A1    A(2,1,3)              107.8843         -DE/DX =    0.0                 !
 ! A2    A(2,1,4)              107.8843         -DE/DX =    0.0                 !
 ! A3    A(3,1,4)              107.8843         -DE/DX =    0.0                 !
 ! D1    D(2,1,4,3)           -116.3083         -DE/DX =    0.0                 !
 --------------------------------------------------------------------------------
 GradGradGradGradGradGradGradGradGradGradGradGradGradGradGradGradGradGrad


 ----------------------------------------------------------------------

 Electric dipole moment (input orientation):
 (Debye = 10**-18 statcoulomb cm , SI units = C m)
                  (au)            (Debye)         (10**-30 SI)
   Tot        0.653919D+00      0.166210D+01      0.554416D+01
   x          0.308260D+00      0.783520D+00      0.261354D+01
   y         -0.533923D+00     -0.135710D+01     -0.452678D+01
   z          0.217973D+00      0.554032D+00      0.184805D+01

 Dipole polarizability, Alpha (input orientation).
 (esu units = cm**3 , SI units = C**2 m**2 J**-1)
 Alpha(0;0):
               (au)            (10**-24 esu)      (10**-40 SI)
   iso        0.106965D+02      0.158506D+01      0.176362D+01
   aniso      0.544523D+00      0.806900D-01      0.897797D-01
   xx         0.106360D+02      0.157609D+01      0.175364D+01
   yx        -0.209587D+00     -0.310576D-01     -0.345562D-01
   yy         0.108780D+02      0.161195D+01      0.179354D+01
   zx         0.855636D-01      0.126792D-01      0.141075D-01
   zy        -0.148200D+00     -0.219610D-01     -0.244349D-01
   zz         0.105755D+02      0.156713D+01      0.174366D+01

 First dipole hyperpolarizability, Beta (input orientation).
 ||, _|_  parallel and perpendicular components, (z) with respect to z axis,
 vector components x,y,z.  Values do not include the 1/n! factor of 1/2.
 (esu units = statvolt**-1 cm**4 , SI units = C**3 m**3 J**-2)
 Beta(0;0,0):
               (au)            (10**-30 esu)      (10**-50 SI)
   || (z)     0.507327D+01      0.438291D-01      0.162667D-01
   _|_(z)     0.169109D+01      0.146097D-01      0.542225D-02
   x          0.358735D+02      0.309919D+00      0.115023D+00
   y         -0.621346D+02     -0.536795D+00     -0.199226D+00
   z          0.253664D+02      0.219146D+00      0.813337D-01
   ||         0.152198D+02      0.131487D+00      0.488002D-01
   xxx        0.111096D+02      0.959784D-01      0.356215D-01
   xxy       -0.527386D+01     -0.455620D-01     -0.169099D-01
   yxy        0.106985D+01      0.924267D-02      0.343033D-02
   yyy       -0.158216D+02     -0.136686D+00     -0.507297D-01
   xxz       -0.848258D+01     -0.732828D-01     -0.271982D-01
   yxz       -0.800128D+01     -0.691248D-01     -0.256550D-01
   yyz        0.756494D+00      0.653552D-02      0.242559D-02
   zxz       -0.221648D+00     -0.191487D-02     -0.710683D-03
   zyz        0.383893D+00      0.331654D-02      0.123090D-02
   zzz        0.161815D+02      0.139796D+00      0.518839D-01

 ----------------------------------------------------------------------

 Dipole orientation:
     7         -0.00000003         -0.00000000         -0.03615911
     1         -0.88251113          1.52855296          0.64189906
     1          1.76502121          0.00000055          0.64189906
     1         -0.88251018         -1.52855351          0.64189906

 Electric dipole moment (dipole orientation):
 (Debye = 10**-18 statcoulomb cm , SI units = C m)
                  (au)            (Debye)         (10**-30 SI)
   Tot        0.653919D+00      0.166210D+01      0.554416D+01
   x          0.000000D+00      0.000000D+00      0.000000D+00
   y          0.000000D+00      0.000000D+00      0.000000D+00
   z          0.653919D+00      0.166210D+01      0.554416D+01

 Dipole polarizability, Alpha (dipole orientation).
 (esu units = cm**3 , SI units = C**2 m**2 J**-1)
 Alpha(0;0):
               (au)            (10**-24 esu)      (10**-40 SI)
   iso        0.106965D+02      0.158506D+01      0.176362D+01
   aniso      0.544523D+00      0.806900D-01      0.897797D-01
   xx         0.105150D+02      0.155816D+01      0.173369D+01
   yx         0.000000D+00      0.000000D+00      0.000000D+00
   yy         0.105150D+02      0.155816D+01      0.173369D+01
   zx         0.000000D+00      0.000000D+00      0.000000D+00
   zy         0.000000D+00      0.000000D+00      0.000000D+00
   zz         0.110595D+02      0.163885D+01      0.182347D+01

 First dipole hyperpolarizability, Beta (dipole orientation).
 ||, _|_  parallel and perpendicular components, (z) with respect to z axis,
 vector components x,y,z.  Values do not include the 1/n! factor of 1/2.
 (esu units = statvolt**-1 cm**4 , SI units = C**3 m**3 J**-2)
 Beta(0;0,0):
               (au)            (10**-30 esu)      (10**-50 SI)
   || (z)     0.152198D+02      0.131487D+00      0.488002D-01
   _|_(z)     0.507327D+01      0.438291D-01      0.162667D-01
   x          0.000000D+00      0.000000D+00      0.000000D+00
   y          0.000000D+00      0.000000D+00      0.000000D+00
   z          0.760991D+02      0.657437D+00      0.244001D+00
   ||         0.152198D+02      0.131487D+00      0.488002D-01
   xxx        0.150410D+02      0.129943D+00      0.482270D-01
   xxy        0.140804D-04      0.121644D-06      0.451468D-07
   yxy       -0.150410D+02     -0.129943D+00     -0.482270D-01
   yyy       -0.140804D-04     -0.121644D-06     -0.451468D-07
   xxz        0.323614D+01      0.279577D-01      0.103762D-01
   yxz        0.000000D+00      0.000000D+00      0.000000D+00
   yyz        0.323614D+01      0.279577D-01      0.103762D-01
   zxz        0.000000D+00      0.000000D+00      0.000000D+00
   zyz        0.000000D+00      0.000000D+00      0.000000D+00
   zzz        0.188941D+02      0.163230D+00      0.605812D-01

 ----------------------------------------------------------------------
 Unable to Open any file for archive entry.
 1\1\GINC-SHRINE\Freq\RHF\6-311++G(2d,p)\H3N1\LNIFE\10-Mar-2025\0\\#N G
 eom=AllCheck Guess=TCheck SCRF=Check GenChk RHF/6-311++G(2d,p) Freq\\T
 itle Card Required\\0,1\N,-0.0090201436,0.0156233119,-0.0063781861\H,0
 .0044575751,-0.0077210646,0.9938182731\H,0.9384667976,-0.0077208363,-0
 .3270698025\H,-0.4625465608,-0.8165966645,-0.3270700404\\Version=ES64L
 -G16RevC.01\State=1-A1\HF=-56.2158123\RMSD=4.867e-10\RMSF=6.867e-05\Ze
 roPoint=0.0364946\Thermal=0.039353\ETot=-56.1764593\HTot=-56.1755151\G
 Tot=-56.1973066\Dipole=0.3082605,-0.5339226,0.2179731\DipoleDeriv=-0.4
 771987,0.1002487,-0.0409264,0.1002487,-0.5929558,0.0708865,-0.0409264,
 0.0708865,-0.4482594,0.209478,-0.0453296,-0.0359029,-0.0453296,0.26182
 ,0.0621856,-0.0170324,0.029501,0.03484,0.0376082,0.0127039,0.0437327,0
 .0435193,0.26182,-0.0634656,0.0248622,-0.0525708,0.2067097,0.2301125,-
 0.067623,0.0330965,-0.0984384,0.0693158,-0.0696065,0.0330965,-0.047816
 7,0.2067097\Polar=10.6360001,-0.2095871,10.8780102,0.0855636,-0.148200
 4,10.5754974\PolarDeriv=-5.5730449,0.9240749,2.5357921,1.8937235,-0.18
 93794,-1.0624219,1.7062566,2.9873851,3.554415,-0.1893794,2.112401,1.84
 01707,1.5743991,-0.1893793,1.7930764,-0.6108287,1.0579886,-6.2663832,-
 0.222871,0.4872608,0.1784289,0.855964,0.678076,-0.1645282,-0.4487736,-
 0.3619908,0.5257483,0.6780757,0.0729902,0.2849693,0.575814,-0.0840899,
 0.6729128,0.0937249,-0.1623383,8.6301003,7.470672,0.0965125,0.6939045,
 -2.1019208,0.0540605,1.0796153,0.6296412,-0.0518479,0.5257486,0.296798
 9,-0.365618,-0.7934434,-2.2520211,0.8162261,-0.0560794,1.4298277,0.228
 412,-1.1818581,-1.6747561,-1.507848,-3.4081253,-0.647767,-0.5427572,0.
 1473349,-1.8871246,-2.5735463,-4.605912,-0.7854954,-1.8197732,-1.33169
 67,0.101808,-0.5427569,-2.4099098,-0.912724,-1.1240622,-1.181859\Hyper
 Polar=11.1096179,-5.2738562,1.0698504,-15.8215816,-8.4825751,-8.001278
 7,0.7564939,-0.2216479,0.3838928,16.1815363\Quadrupole=0.2673654,-0.80
 20966,0.5347312,0.9261819,-0.3781123,0.6549095\PG=C03V [C3(N1),3SGV(H1
 )]\NImag=0\\0.62742727,0.19199462,0.40573114,-0.07838150,0.13576068,0.
 68285137,-0.05892147,-0.02415822,-0.02345395,0.05670259,-0.02415823,-0
 .03102599,0.04062353,0.01978454,0.03385739,0.00583031,-0.01009828,-0.4
 8205580,-0.00112541,0.00194914,0.50823293,-0.44057953,-0.01757358,0.14
 076668,0.00227557,0.00274897,-0.00452999,0.45735561,0.03024741,-0.0310
 2597,-0.03631772,0.00027817,-0.00258184,0.00281737,0.00843261,0.033857
 39,0.11148243,-0.01941047,-0.10039776,0.04798633,-0.00067685,-0.013088
 56,-0.14277751,0.01800330,0.10757991,-0.12792627,-0.15026282,-0.038931
 24,-0.00005669,0.00162472,-0.00017492,-0.01905165,-0.03895818,-0.01669
 126,0.14703461,-0.19808380,-0.34367918,-0.14006649,0.00409550,-0.00024
 957,0.00533177,0.00639200,-0.00024958,0.00208402,0.18759629,0.34417832
 ,-0.03893125,-0.10625194,-0.10039781,-0.02340698,-0.04189581,-0.013088
 57,0.00654081,0.01549706,0.00590640,0.05579742,0.13265070,0.10757998\\
 0.00005065,-0.00008773,0.00003581,0.00000265,-0.00000459,-0.00012242,-
 0.00011454,-0.00000459,0.00004330,0.00006124,0.00009690,0.00004330\\\@
 The archive entry for this job was punched.


 FRICTION IS A DRAG,
 AND ENTROPY AIN'T WHAT IT USED TO BE.
 Job cpu time:       0 days  0 hours  0 minutes  9.3 seconds.
 Elapsed time:       0 days  0 hours  0 minutes  1.6 seconds.
 File lengths (MBytes):  RWF=      6 Int=      0 D2E=      0 Chk=      1 Scr=      1
 Normal termination of Gaussian 16 at Mon Mar 10 15:46:39 2025.
